# Probe 0 (100.595 86.3716 2)
# Probe 1 (119.398 86.1579 2)
# Time          0               1              
0               293.15          293.15         
3600            299.34092       295.37961      
3600            301.03114       301.48191      
3600            300.54858       294.70469      
3600            290.04114       289.38535      
3600            289.26944       289.08706      
3600            289.7311        288.99396      
3600            290.29167       289.17113      
3600            290.58755       288.5463       
3600            289.64428       288.76144      
3600            290.32545       289.04719      
