# Probe 0 (100.595 86.3716 2)
# Probe 1 (119.398 86.1579 2)
# Time          0               1              
0               (5 0 0)         (5 0 0)        
3600            (1.4717686 3.2147654 -0.42540472) (0.16318709 5.0893909 -0.10052064)
3600            (-3.5423426 -2.9808281 0.73828049) (-8.0320187 -3.6837653 1.0316118)
3600            (-2.5938565 2.1673229 -1.1476835) (-2.4411438 2.1606955 -0.75194073)
3600            (-7.2264483 3.5638654 -2.8066428) (-18.111043 1.4863481 0.42649418)
3600            (-16.251403 1.760296 0.23330036) (-12.162891 -0.95411349 0.076482884)
3600            (-7.3540446 0.73545886 -1.2964669) (-1.97368 -8.0483759 -2.5244474)
3600            (-0.71885542 1.9054222 0.17575961) (-1.6606879 -3.6309496 2.7556222)
3600            (-1.0761393 -2.6497867 1.7330595) (-8.1523115 -3.1839081 1.4689696)
3600            (-2.4669223 -2.9452062 0.26582127) (-9.5415946 -1.4313817 0.96875439)
3600            (-2.5157247 -2.8208479 -0.48125376) (-6.7552677 -0.61427893 -0.40665968)
